# Reading C:/Users/Administrator/Desktop/Facultate/An 2/CN/modelsim/tcl/vsim/pref.tcl 
# Loading project ALU_local
vsim rgst_tb
# vsim rgst_tb 
# Loading work.rgst_tb
# Loading work.rgst
# Loading work.mux
# Loading work.dff
rnun
# invalid command name "rnun"
run
# Time                   35: Parallel Load test; loading 8'hB2
run
# Time                  135: Load test
# Value after load: 10110010
run
# Time                  235: Left Shift test
run
run
# Value after left shift: 00010110
# Time                  435: Right Shift test
run
# Value after right shift: 00010110
run
run
# Value after right shift: 00010110
# Time                  735: End of Simulation
# ** Note: $finish    : C:/Users/Administrator/Desktop/Facultate/An 2/CN/Proiect ALU/ALU/rgst.v(227)
#    Time: 735 ns  Iteration: 0  Instance: /rgst_tb
# 1
# Break in Module rgst_tb at C:/Users/Administrator/Desktop/Facultate/An 2/CN/Proiect ALU/ALU/rgst.v line 227
# Compile of adder.v was successful.
# Compile of adder_tb.v was successful.
# Compile of control_unit.v failed with 1 errors.
# Compile of dff.v was successful.
# Compile of mux.v was successful.
# Compile of rgst.v was successful.
# 6 compiles, 1 failed with 1 error. 
vsim rgst_tb
# vsim rgst_tb 
# Loading work.rgst_tb
# Loading work.rgst
# Loading work.mux
# Loading work.dff
run
# Time                   35: Parallel Load test; loading 8'hB2
run
# Time                  135: Load test
# Value after load: 10110010
run
# Time                  235: Left Shift test
run
run
# Value after left shift: 00010110
# Time                  435: Right Shift test
run
run
# Value after right shift: 00010110
run
run
# Value after right shift: 00010110
# Time                  835: End of Simulation
# ** Note: $finish    : C:/Users/Administrator/Desktop/Facultate/An 2/CN/Proiect ALU/ALU/rgst.v(228)
#    Time: 835 ns  Iteration: 0  Instance: /rgst_tb
# 1
# Break in Module rgst_tb at C:/Users/Administrator/Desktop/Facultate/An 2/CN/Proiect ALU/ALU/rgst.v line 228
# Compile of adder.v was successful.
# Compile of adder_tb.v was successful.
# Compile of control_unit.v failed with 1 errors.
# Compile of dff.v was successful.
# Compile of mux.v was successful.
# Compile of rgst.v was successful.
# 6 compiles, 1 failed with 1 error. 
vsim rgst_tb
# vsim rgst_tb 
# Loading work.rgst_tb
# Loading work.rgst
# Loading work.mux
# Loading work.dff
run
# Time                   35: Parallel Load test; loading 8'hB2
run
# Time                  135: Load test
# Value after load: 10110010
run
# Time                  235: Left Shift test
run
run
# Value after left shift: 00010110
# Time                  435: Right Shift test
run
run
# Value after right shift: 11000101
run
run
# Value after right shift: 11110001
# Time                  835: End of Simulation
# ** Note: $finish    : C:/Users/Administrator/Desktop/Facultate/An 2/CN/Proiect ALU/ALU/rgst.v(228)
#    Time: 835 ns  Iteration: 0  Instance: /rgst_tb
# 1
# Break in Module rgst_tb at C:/Users/Administrator/Desktop/Facultate/An 2/CN/Proiect ALU/ALU/rgst.v line 228
# Compile of adder.v was successful.
# Compile of adder_tb.v was successful.
# Compile of control_unit.v failed with 1 errors.
# Compile of dff.v was successful.
# Compile of mux.v was successful.
# Compile of rgst.v was successful.
# 6 compiles, 1 failed with 1 error. 
# Compile of adder.v was successful.
# Compile of adder_tb.v was successful.
# Compile of control_unit.v failed with 1 errors.
# Compile of dff.v was successful.
# Compile of mux.v was successful.
# Compile of rgst.v was successful.
# 6 compiles, 1 failed with 1 error. 
vsim rgst_tb
# vsim rgst_tb 
# Loading work.rgst_tb
# Loading work.rgst
# Loading work.mux
# Loading work.dff
run
# Time                   35: Parallel Load test; loading 8'hB2
run
# Time                  135: Load test
# Value after load: 10110010
run
# Time                  235: Left Shift test
run
run
# Value after left shift: 01100100
# Time                  435: Right Shift test
run
run
# Value after right shift: 11011001
run
run
# Value after right shift: 11101100
# Time                  835: End of Simulation
# ** Note: $finish    : C:/Users/Administrator/Desktop/Facultate/An 2/CN/Proiect ALU/ALU/rgst.v(226)
#    Time: 835 ns  Iteration: 0  Instance: /rgst_tb
# 1
# Break in Module rgst_tb at C:/Users/Administrator/Desktop/Facultate/An 2/CN/Proiect ALU/ALU/rgst.v line 226
# Compile of adder.v was successful.
# Compile of adder_tb.v was successful.
# Compile of control_unit.v failed with 1 errors.
# Compile of dff.v was successful.
# Compile of mux.v was successful.
# Compile of rgst.v was successful.
# 6 compiles, 1 failed with 1 error. 
# Compile of adder.v was successful.
# Compile of adder_tb.v was successful.
# Compile of control_unit.v failed with 1 errors.
# Compile of dff.v was successful.
# Compile of mux.v was successful.
# Compile of rgst.v was successful.
# 6 compiles, 1 failed with 1 error. 
quit -sim
# Compile of adder.v was successful.
# Compile of adder_tb.v was successful.
# Compile of control_unit.v failed with 1 errors.
# Compile of dff.v was successful.
# Compile of mux.v was successful.
# Compile of rgst.v was successful.
# 6 compiles, 1 failed with 1 error. 
vsim work.rgst_tb
# vsim work.rgst_tb 
# Loading work.rgst_tb
# Loading work.rgst
# Loading work.mux
# Loading work.dff
run -all
# ** Note: $finish    : C:/Users/Administrator/Desktop/Facultate/An 2/CN/Proiect ALU/ALU/rgst.v(214)
#    Time: 735 ns  Iteration: 0  Instance: /rgst_tb
# 1
# Break in Module rgst_tb at C:/Users/Administrator/Desktop/Facultate/An 2/CN/Proiect ALU/ALU/rgst.v line 214
# Compile of adder.v was successful.
# Compile of adder_tb.v was successful.
# Compile of control_unit.v failed with 1 errors.
# Compile of dff.v was successful.
# Compile of mux.v was successful.
# Compile of rgst.v was successful.
# 6 compiles, 1 failed with 1 error. 
quit -sim
# Compile of adder.v was successful.
# Compile of adder_tb.v was successful.
# Compile of control_unit.v failed with 1 errors.
# Compile of dff.v was successful.
# Compile of mux.v was successful.
# Compile of rgst.v was successful.
# 6 compiles, 1 failed with 1 error. 
vsim work.rgst_tb
# vsim work.rgst_tb 
# Loading work.rgst_tb
# Loading work.rgst
# Loading work.mux
# Loading work.dff
run -all
quit -sim
# Compile of adder.v was successful.
# Compile of adder_tb.v was successful.
# Compile of control_unit.v failed with 1 errors.
# Compile of dff.v was successful.
# Compile of mux.v was successful.
# Compile of rgst.v was successful.
# 6 compiles, 1 failed with 1 error. 
vsim work.rgst_tb
# vsim work.rgst_tb 
# Loading work.rgst_tb
# Loading work.rgst
# Loading work.mux
# Loading work.dff
run -all
quit -sim
